/*--------------------------------*- C++ -*----------------------------------*\
| =========                 |                                                 |
| \\      /  F ield         | OpenFOAM: The Open Source CFD Toolbox           |
|  \\    /   O peration     | Version:  5.x                                   |
|   \\  /    A nd           | Web:      www.OpenFOAM.org                      |
|    \\/     M anipulation  |                                                 |
\*---------------------------------------------------------------------------*/
FoamFile
{
    version     2.0;
    format      ascii;
    class       volScalarField;
    location    "200";
    object      gamma;
}
// * * * * * * * * * * * * * * * * * * * * * * * * * * * * * * * * * * * * * //

dimensions      [0 0 0 0 0 0 0];

internalField   nonuniform List<scalar> 
86400
(
0.0001262
0.000106
0.0001935
0.0003516
0.0008603
0.00113
0.000673
0.0003721
0.0002435
0.0002298
0.0003126
0.000964
0.004027
0.03276
0.2982
0.9465
0.996
0.9996
0.9999
0.9999
0.9999
0.9998
0.9996
0.9982
0.9924
0.9647
0.3114
0.007347
0.0001836
1.532e-05
9.384e-06
2.367e-05
7.602e-05
9.589e-05
9.655e-05
0.0001195
0.000107
9e-05
7.517e-05
7.074e-05
5.601e-05
4.552e-05
4.51e-05
4.321e-05
3.588e-05
3.429e-05
5.444e-05
0.0001287
0.000207
0.000143
3.938e-05
3.486e-05
0.0001384
0.002159
0.02456
0.13
0.1773
0.1907
0.1917
0.1714
0.1536
0.1397
0.1354
0.1225
0.1064
0.1029
0.1033
0.1156
0.1277
0.1056
0.07208
0.04781
0.03586
0.02921
0.02934
0.02853
0.02804
0.02893
0.02922
0.02938
0.0295
0.02985
0.03028
0.03072
0.03103
0.03128
0.03174
0.03158
0.03127
0.03121
0.0319
0.0326
0.03379
0.03774
0.0449
0.05684
0.05154
0.03853
0.02497
0.02185
0.02113
0.0238
0.01962
0.0142
0.0098
0.008186
0.00678
0.007172
0.007956
0.008342
0.00612
0.004098
0.003077
0.005376
0.01662
0.0636
0.1491
0.2197
0.2238
0.197
0.1747
0.1333
0.1152
0.1092
0.1299
0.1469
0.1587
0.1676
0.157
0.1586
0.156
0.09458
0.03678
0.009562
0.002998
0.001476
0.001262
0.0006853
0.0002209
6.507e-05
3.655e-05
5.16e-05
3.634e-05
2.133e-05
1.263e-05
1.387e-05
1.641e-05
9.891e-06
2.661e-06
3.176e-07
7.241e-08
2.342e-08
1.167e-07
1.047e-05
0.0005405
0.01227
0.3132
0.3747
0.9991
1
0.0001149
0.0001155
0.0002037
0.0003261
0.0005869
0.0006499
0.0004758
0.0004047
0.0004758
0.0006797
0.00126
0.004303
0.02842
0.3988
0.9863
0.9996
1
1
1
1
1
1
1
0.9999
0.9998
0.9988
0.9769
0.2525
0.01486
0.001952
0.0007578
0.0009435
0.001973
0.002173
0.002246
0.002809
0.003181
0.003091
0.00271
0.002345
0.00182
0.001517
0.001523
0.001538
0.001459
0.00143
0.001869
0.002883
0.003442
0.002704
0.001296
0.001192
0.002433
0.01332
0.07359
0.2514
0.3341
0.3645
0.3774
0.3652
0.3528
0.35
0.3608
0.3536
0.3226
0.3129
0.3048
0.3154
0.3515
0.3327
0.2708
0.2216
0.1789
0.1517
0.1505
0.1474
0.1462
0.1496
0.1509
0.1514
0.1512
0.1512
0.152
0.1528
0.1529
0.1521
0.1515
0.1475
0.1431
0.1388
0.1376
0.1369
0.1369
0.1438
0.1607
0.188
0.1828
0.1572
0.1274
0.1159
0.1092
0.1205
0.1173
0.1049
0.0937
0.08735
0.0771
0.08263
0.09535
0.1047
0.0983
0.09008
0.08953
0.1716
0.5723
0.9327
0.9843
0.9935
0.9953
0.9954
0.9955
0.9953
0.9951
0.9949
0.9951
0.9949
0.9947
0.9946
0.9941
0.9937
0.9926
0.9828
0.9305
0.6109
0.1746
0.07062
0.04493
0.02024
0.006534
0.001984
0.001111
0.001396
0.001325
0.001105
0.001055
0.0007664
0.0009086
0.0006859
0.0002911
7.368e-05
4.85e-05
2.427e-05
9.507e-05
0.001229
0.007476
0.02914
0.3769
0.8948
0.9996
1
0.0001592
0.0001605
0.0002244
0.0002915
0.0003813
0.0003734
0.0003058
0.0003376
0.0006494
0.001802
0.006738
0.04458
0.5102
0.9884
0.9998
1
1
1
1
1
1
1
1
1
1
1
0.9996
0.9918
0.787
0.1295
0.04657
0.03644
0.04439
0.04339
0.04398
0.05133
0.05704
0.0571
0.05753
0.05845
0.05439
0.05366
0.05835
0.05882
0.05647
0.05489
0.06107
0.07528
0.08327
0.07299
0.04582
0.04248
0.06942
0.184
0.526
0.8389
0.915
0.9602
0.985
0.994
0.9961
0.9969
0.9973
0.9975
0.9977
0.998
0.9979
0.9982
0.9981
0.9973
0.9971
0.9974
0.998
0.9986
0.9988
0.9985
0.9984
0.9984
0.9985
0.9985
0.9985
0.9985
0.9985
0.9985
0.9985
0.9985
0.9985
0.9984
0.9984
0.9983
0.9983
0.9983
0.9984
0.9983
0.9981
0.998
0.9976
0.9972
0.9972
0.9973
0.9974
0.9975
0.9974
0.9971
0.997
0.9975
0.9973
0.997
0.9967
0.9965
0.9965
0.9967
0.996
0.9969
0.9986
0.9996
0.9999
0.9999
0.9999
1
1
1
1
1
1
0.9999
0.9999
0.9999
0.9999
0.9999
0.9999
0.9998
0.9995
0.9985
0.9953
0.9891
0.9796
0.9312
0.6197
0.1642
0.06919
0.06024
0.05923
0.05535
0.05197
0.04075
0.0331
0.02352
0.01369
0.005874
0.00664
0.005197
0.01868
0.06511
0.1252
0.2703
0.9819
0.9993
1
1
0.0002942
0.0002799
0.0002934
0.0002495
0.0002232
0.0001969
0.0002143
0.0003979
0.002275
0.01837
0.2011
0.9434
0.9988
1
1
1
1
1
1
1
1
1
1
1
1
1
1
1
0.9998
0.9984
0.9945
0.9833
0.9674
0.9545
0.9533
0.9608
0.9688
0.9746
0.9796
0.9825
0.9842
0.9864
0.9883
0.989
0.9895
0.9895
0.9887
0.9875
0.9884
0.9901
0.9904
0.991
0.9927
0.9947
0.9968
0.9982
0.9991
0.9996
0.9999
1
1
1
1
1
1
1
1
1
1
1
1
1
1
1
1
1
1
1
1
1
1
1
1
1
1
1
1
1
1
1
1
1
1
1
1
1
1
1
1
1
1
1
1
1
1
1
1
1
1
1
1
1
1
1
1
1
1
1
1
1
1
1
1
1
1
1
1
1
1
1
1
1
1
1
1
1
1
0.9999
0.9997
0.9987
0.9963
0.9943
0.994
0.9927
0.9877
0.9803
0.9548
0.9174
0.8859
0.8103
0.9196
0.9397
0.9662
0.9916
0.9924
0.9941
0.9999
1
1
1
0.0006848
0.0005281
0.0004367
0.000317
0.0002694
0.0004354
0.0007552
0.001538
0.02231
0.3671
0.9879
0.9999
1
1
1
1
1
1
0.9996
0.9971
0.995
0.9982
0.9996
1
1
1
1
1
1
0.9999
0.9998
0.9995
0.9989
0.9984
0.9982
0.9983
0.9984
0.9987
0.999
0.9993
0.9996
0.9997
0.9997
0.9997
0.9997
0.9997
0.9997
0.9997
0.9997
0.9998
0.9998
0.9999
0.9999
0.9999
0.9999
0.9999
1
1
1
1
1
1
1
1
1
1
1
1
1
1
1
1
1
1
1
1
1
1
1
1
1
1
1
1
1
1
1
1
1
1
1
1
1
1
1
1
1
1
1
1
1
1
1
1
1
1
1
1
1
1
1
1
1
1
1
1
1
1
1
1
1
1
1
1
1
1
1
1
1
1
1
1
1
1
1
1
1
1
1
1
1
0.9999
0.9999
0.9999
0.9997
0.9995
0.9988
0.9978
0.9961
0.9933
0.9969
0.998
0.9984
0.9996
0.9998
1
1
1
1
1
0.001076
0.0006363
0.0004819
0.0003568
0.0003956
0.001222
0.007776
0.03547
0.874
0.9978
1
1
1
1
1
1
1
0.948
0.01883
0.002111
0.002578
0.03104
0.7713
0.9966
0.9998
1
1
1
1
1
1
1
0.9999
0.9999
0.9999
0.9999
0.9999
0.9999
0.9999
0.9999
1
1
1
1
1
1
1
1
1
1
1
1
1
1
1
1
1
1
1
1
1
1
1
1
1
1
1
1
1
1
1
1
1
1
1
1
1
1
1
1
1
1
1
1
1
1
1
1
1
1
1
1
1
1
1
1
1
1
1
1
1
1
1
1
1
1
1
1
1
1
1
1
1
1
1
1
1
1
1
1
1
1
1
1
1
1
1
1
1
1
1
1
1
1
1
1
1
1
1
1
1
1
1
1
0.9999
0.9999
0.9998
0.9998
0.9996
0.9994
0.9993
0.9994
0.9996
1
1
1
1
1
1
1
0.0006014
0.0002858
0.0002391
0.0002706
0.0006068
0.004727
0.08499
0.9082
0.9999
1
1
1
1
1
1
1
0.9499
0.001361
1.658e-06
8.22e-08
1.63e-07
1.503e-05
0.004029
0.4741
0.9904
0.9993
0.9999
1
1
1
1
1
1
1
1
1
1
1
1
1
1
1
1
1
1
1
1
1
1
1
1
1
1
1
1
1
1
1
1
1
1
1
1
1
1
1
1
1
1
1
1
1
1
1
1
1
1
1
1
1
1
1
1
1
1
1
1
1
1
1
1
1
1
1
1
1
1
1
1
1
1
1
1
1
1
1
1
1
1
1
1
1
1
1
1
1
1
1
1
1
1
1
1
1
1
1
1
1
1
1
1
1
1
1
1
1
1
1
1
1
1
1
1
1
1
1
0.9999
0.9999
0.9999
0.9999
1
1
1
1
1
1
1
1
1
1
0.0001117
4.648e-05
4.517e-05
9.6e-05
0.0007503
0.03627
0.9854
1
1
1
1
1
1
1
1
0.9999
0.2003
2.662e-05
3.483e-09
3.031e-11
5.227e-11
1.149e-08
5.441e-06
0.001217
0.04454
0.7485
0.9942
0.9997
0.9999
1
1
1
1
1
1
1
1
1
1
1
1
1
1
1
1
1
1
1
1
1
1
1
1
0.9999
0.9999
0.9999
0.9999
0.9999
0.9999
0.9999
0.9999
1
1
1
1
1
1
1
1
1
1
1
1
1
1
1
1
1
1
1
1
1
1
1
1
1
1
1
1
1
1
1
1
1
1
1
1
1
1
1
1
1
1
0.9999
0.9999
0.9999
0.9999
0.9999
0.9999
0.9999
0.9999
0.9999
0.9999
0.9999
0.9999
0.9999
0.9999
0.9999
0.9999
0.9998
0.9998
0.9998
0.9998
0.9998
0.9998
0.9998
0.9998
0.9998
0.9998
0.9998
0.9998
0.9998
0.9998
0.9998
0.9998
0.9997
0.9997
0.9997
0.9998
0.9999
0.9999
0.9999
0.9999
0.9999
0.9999
0.9999
1
1
1
1
1
1
1
1
1
1
1
1
1
1
7.425e-06
5.082e-06
9.604e-06
8.637e-05
0.006491
0.9521
1
1
1
1
1
1
1
1
1
0.9998
0.1863
4.621e-05
3.563e-09
7.036e-12
3.83e-12
3.071e-10
1.052e-07
3.136e-05
0.002197
0.1051
0.9767
0.9995
0.9999
0.9999
1
1
1
1
1
1
1
1
1
1
1
1
1
1
1
1
1
0.9999
0.9999
0.9999
0.9998
0.9998
0.9997
0.9995
0.9994
0.9994
0.9994
0.9996
0.9996
0.9997
0.9998
0.9999
0.9999
0.9999
1
1
1
1
1
0.9999
0.9999
0.9999
0.9999
0.9999
0.9999
0.9999
0.9999
0.9999
0.9999
0.9999
0.9999
0.9999
0.9998
0.9998
0.9998
0.9998
0.9998
0.9998
0.9997
0.9997
0.9997
0.9997
0.9997
0.9997
0.9997
0.9997
0.9996
0.9995
0.9995
0.9995
0.9995
0.9994
0.9994
0.9995
0.9995
0.9996
0.9996
0.9996
0.9997
0.9997
0.9997
0.9997
0.9997
0.9997
0.9997
0.9997
0.9997
0.9997
0.9996
0.9996
0.9994
0.9993
0.9992
0.9992
0.9992
0.9993
0.9992
0.9992
0.9992
0.9992
0.9991
0.9991
0.9991
0.9991
0.9992
0.9992
0.9992
0.9992
0.9993
0.9995
0.9995
0.9996
0.9997
0.9997
0.9998
0.9999
0.9999
1
1
1
1
1
1
1
1
1
1
1
1
1
1.257e-06
2.018e-06
1.319e-05
0.0004084
0.1818
0.9999
1
1
1
1
1
1
1
1
1
0.9996
0.8841
0.005263
1.857e-06
1.399e-09
8.42e-11
4.311e-10
1.598e-08
1.868e-06
0.0002085
0.0311
0.9553
0.9992
0.9997
0.9998
0.9999
1
1
1
1
1
1
1
1
1
1
1
0.9999
0.9999
0.9999
0.9999
0.9999
0.9999
0.9998
0.9997
0.9996
0.9994
0.9992
0.9991
0.9991
0.9992
0.9993
0.9994
0.9995
0.9996
0.9997
0.9998
0.9998
0.9999
0.9999
0.9999
0.9999
0.9999
0.9999
0.9999
0.9999
0.9999
0.9998
0.9998
0.9998
0.9998
0.9998
0.9997
0.9997
0.9997
0.9997
0.9997
0.9997
0.9996
0.9996
0.9996
0.9995
0.9995
0.9995
0.9995
0.9995
0.9995
0.9994
0.9994
0.9994
0.9994
0.9994
0.9994
0.9994
0.9994
0.9994
0.9994
0.9995
0.9995
0.9995
0.9995
0.9995
0.9995
0.9996
0.9996
0.9996
0.9996
0.9996
0.9996
0.9996
0.9996
0.9996
0.9997
0.9996
0.9995
0.9994
0.9992
0.9991
0.9992
0.9992
0.9992
0.9992
0.9991
0.9991
0.9991
0.9991
0.9991
0.9991
0.9992
0.9992
0.9992
0.9992
0.9992
0.9992
0.9993
0.9994
0.9994
0.9995
0.9995
0.9996
0.9997
0.9998
0.9998
0.9999
0.9999
0.9999
1
1
1
1
1
1
1
1
1
9.121e-07
4.555e-06
9.523e-05
0.0145
0.9953
1
1
1
1
1
1
1
1
1
1
0.9998
0.9985
0.9781
0.02601
3.66e-05
3.448e-07
4.027e-08
5.935e-08
4.431e-06
0.0006023
0.06896
0.9678
0.9988
0.9994
0.9994
0.9996
0.9999
1
1
1
1
1
1
1
0.9999
0.9998
0.9996
0.9994
0.9994
0.9994
0.9994
0.9996
0.9996
0.9995
0.9995
0.9992
0.9989
0.9986
0.9985
0.9986
0.9988
0.999
0.9992
0.9994
0.9995
0.9995
0.9996
0.9997
0.9997
0.9997
0.9997
0.9997
0.9997
0.9997
0.9997
0.9997
0.9997
0.9997
0.9997
0.9997
0.9997
0.9996
0.9996
0.9996
0.9996
0.9996
0.9995
0.9995
0.9995
0.9995
0.9994
0.9994
0.9994
0.9993
0.9993
0.9994
0.9993
0.9993
0.9993
0.9993
0.9993
0.9994
0.9994
0.9994
0.9994
0.9994
0.9994
0.9994
0.9994
0.9994
0.9994
0.9995
0.9995
0.9995
0.9995
0.9995
0.9995
0.9995
0.9995
0.9995
0.9996
0.9996
0.9996
0.9996
0.9995
0.9993
0.9992
0.9991
0.9992
0.9992
0.9992
0.9992
0.9992
0.9992
0.9992
0.9992
0.9992
0.9993
0.9993
0.9992
0.9992
0.9992
0.9993
0.9993
0.9994
0.9994
0.9994
0.9994
0.9994
0.9995
0.9995
0.9996
0.9997
0.9997
0.9998
0.9999
0.9999
0.9999
1
1
1
1
1
0.9999
0.9999
6.209e-06
9.859e-05
0.00337
0.8921
1
1
1
1
1
1
1
1
1
1
1
0.9998
0.9999
1
0.9974
0.09699
0.0002148
2.668e-06
7.621e-07
3.262e-05
0.003401
0.2677
0.9818
0.9975
0.9984
0.9986
0.999
0.9992
0.9991
0.9988
0.9982
0.9974
0.9963
0.9944
0.9915
0.9902
0.9883
0.9857
0.9876
0.9917
0.9925
0.994
0.995
0.9957
0.9956
0.9964
0.9952
0.9892
0.9795
0.9779
0.985
0.9949
0.9987
0.9994
0.9995
0.9995
0.9994
0.9994
0.9994
0.9994
0.9995
0.9995
0.9995
0.9994
0.9994
0.9994
0.9994
0.9994
0.9994
0.9994
0.9994
0.9994
0.9994
0.9994
0.9994
0.9993
0.9993
0.9993
0.9993
0.9993
0.9993
0.9992
0.9992
0.9991
0.9991
0.9991
0.9991
0.9991
0.9992
0.9992
0.9992
0.9992
0.9992
0.9993
0.9993
0.9993
0.9993
0.9993
0.9993
0.9993
0.9993
0.9993
0.9993
0.9994
0.9994
0.9994
0.9994
0.9994
0.9995
0.9995
0.9995
0.9995
0.9995
0.9995
0.9994
0.9993
0.9992
0.9991
0.9991
0.9992
0.9992
0.9992
0.9992
0.9992
0.9992
0.9992
0.9993
0.9993
0.9993
0.9993
0.9992
0.9992
0.9993
0.9993
0.9994
0.9994
0.9994
0.9994
0.9994
0.9994
0.9995
0.9995
0.9995
0.9996
0.9996
0.9997
0.9998
0.9998
0.9999
0.9999
0.9999
0.9999
0.9999
0.9999
0.9998
0.9997
4.97e-05
0.001483
0.1433
0.9999
1
1
1
1
1
1
1
1
1
1
1
1
1
1
1
0.9795
0.01044
0.0001857
6.549e-05
0.002537
0.1592
0.9619
0.9929
0.9939
0.9955
0.9974
0.9978
0.9939
0.954
0.3715
0.05484
0.01845
0.01358
0.017
0.03083
0.06013
0.08993
0.0901
0.09169
0.1157
0.1164
0.1349
0.08043
0.06146
0.03787
0.05788
0.06542
0.0555
0.04056
0.07396
0.2535
0.9243
0.9965
0.9993
0.9995
0.9995
0.9994
0.9993
0.9993
0.9994
0.9994
0.9994
0.9993
0.9993
0.9993
0.9993
0.9993
0.9992
0.9992
0.9992
0.9991
0.9992
0.9991
0.9991
0.999
0.999
0.9989
0.9989
0.9989
0.9989
0.9988
0.9988
0.9988
0.9988
0.9988
0.9987
0.9987
0.9987
0.9988
0.9988
0.9988
0.9989
0.9989
0.999
0.999
0.9991
0.9991
0.9991
0.9991
0.9991
0.9991
0.9991
0.9991
0.9991
0.9992
0.9992
0.9992
0.9993
0.9993
0.9994
0.9994
0.9994
0.9994
0.9993
0.9992
0.9991
0.9991
0.9991
0.9991
0.9992
0.9992
0.9992
0.9992
0.9992
0.9992
0.9992
0.9993
0.9993
0.9993
0.9993
0.9993
0.9993
0.9993
0.9994
0.9994
0.9994
0.9994
0.9994
0.9994
0.9994
0.9994
0.9995
0.9995
0.9995
0.9995
0.9996
0.9997
0.9997
0.9998
0.9998
0.9998
0.9997
0.9997
0.9996
0.9995
0.9994
0.000342
0.01202
0.942
1
1
1
1
1
1
1
1
1
1
1
1
1
1
1
1
0.9923
0.04446
0.001486
0.0006966
0.01516
0.4193
0.9597
0.9815
0.9784
0.9873
0.9945
0.9939
0.963
0.189
0.005086
0.0002756
7.443e-05
7.132e-05
0.0001444
0.0004086
0.0009848
0.001795
0.002391
0.00389
0.006555
0.006042
0.00455
0.001035
0.0002787
8.138e-05
0.0001064
0.0001483
0.0002614
0.000358
0.001398
0.01478
0.448
0.9923
0.9992
0.9995
0.9995
0.9992
0.9991
0.9992
0.9993
0.9994
0.9994
0.9993
0.9994
0.9995
0.9996
0.9997
0.9997
0.9997
0.9997
0.9998
0.9998
0.9997
0.9996
0.9993
0.9989
0.9985
0.9984
0.9984
0.9983
0.9983
0.9983
0.9982
0.9982
0.9982
0.9982
0.9982
0.9982
0.9982
0.9982
0.9983
0.9983
0.9984
0.9985
0.9986
0.9987
0.9988
0.9988
0.9989
0.9989
0.9989
0.9989
0.9988
0.9987
0.9987
0.9988
0.9989
0.999
0.9991
0.9992
0.9992
0.9992
0.9991
0.999
0.9989
0.9989
0.9989
0.999
0.9991
0.9991
0.9992
0.9992
0.9992
0.9992
0.9993
0.9993
0.9994
0.9994
0.9994
0.9994
0.9994
0.9994
0.9995
0.9995
0.9995
0.9995
0.9995
0.9995
0.9995
0.9995
0.9995
0.9995
0.9995
0.9995
0.9995
0.9995
0.9995
0.9995
0.9996
0.9995
0.9995
0.9995
0.9994
0.9993
0.9992
0.9991
0.0001564
0.02656
0.9968
1
1
1
1
1
1
1
1
1
1
1
1
1
1
1
1
0.9993
0.2256
0.01531
0.01954
0.2888
0.9465
0.9899
0.9873
0.9833
0.9892
0.9949
0.9922
0.9141
0.05339
0.0009083
3.19e-05
6.973e-06
7.347e-06
1.708e-05
4.659e-05
9.391e-05
0.0001558
0.0002544
0.0005482
0.0009643
0.0006762
0.000258
1.906e-05
1.678e-06
1.913e-07
2.886e-07
7.064e-07
3.986e-06
1.727e-05
0.0002592
0.007215
0.6606
0.9976
0.9998
0.9998
0.9996
0.9991
0.9991
0.9991
0.9992
0.9992
0.9992
0.9994
0.9996
0.9998
0.9999
0.9999
0.9999
0.9999
0.9999
0.9999
0.9999
0.9998
0.9997
0.9994
0.9991
0.9988
0.9987
0.9985
0.9983
0.9982
0.9981
0.9982
0.9982
0.9983
0.9983
0.9983
0.9984
0.9984
0.9985
0.9985
0.9985
0.9985
0.9984
0.9983
0.9983
0.9985
0.9986
0.9988
0.9988
0.9988
0.9986
0.9986
0.9986
0.9987
0.9988
0.9989
0.999
0.9991
0.9991
0.9991
0.999
0.9989
0.9989
0.9989
0.999
0.999
0.9991
0.9991
0.9992
0.9992
0.9993
0.9993
0.9994
0.9994
0.9995
0.9995
0.9995
0.9995
0.9995
0.9995
0.9995
0.9996
0.9996
0.9995
0.9995
0.9995
0.9996
0.9996
0.9996
0.9996
0.9996
0.9995
0.9995
0.9995
0.9994
0.9994
0.9994
0.9994
0.9993
0.9993
0.9992
0.9991
0.9991
0.999
0.999
0.0003606
0.2156
0.9999
1
1
1
1
1
1
1
1
1
1
1
1
1
1
1
1
1
0.9974
0.7702
0.6586
0.9392
0.9873
0.9943
0.9882
0.9842
0.9862
0.9841
0.9431
0.3024
0.01123
0.0004089
3.552e-05
1.499e-05
1.955e-05
4.538e-05
8.798e-05
0.0001187
0.0001329
0.0001744
0.0004429
0.0007445
0.0005382
0.0001001
5.524e-06
2.781e-07
2.588e-08
2.169e-08
7.237e-08
1.064e-06
2.093e-05
0.001044
0.06675
0.9864
0.9999
1
1
0.9998
0.9991
0.9989
0.999
0.9991
0.9992
0.9994
0.9997
0.9999
0.9999
1
1
1
1
1
1
0.9999
0.9999
0.9997
0.9995
0.9993
0.9992
0.9992
0.999
0.9987
0.9984
0.9984
0.9984
0.9985
0.9985
0.9986
0.9986
0.9987
0.9987
0.9988
0.9989
0.9989
0.9987
0.9985
0.9982
0.998
0.9981
0.9984
0.9986
0.9986
0.9984
0.9982
0.9985
0.9991
0.9995
0.9996
0.9996
0.9994
0.9992
0.999
0.9989
0.9989
0.9989
0.9991
0.9991
0.9992
0.9993
0.9993
0.9994
0.9994
0.9995
0.9995
0.9996
0.9996
0.9997
0.9997
0.9997
0.9997
0.9997
0.9997
0.9997
0.9998
0.9998
0.9998
0.9998
0.9998
0.9998
0.9998
0.9998
0.9998
0.9997
0.9997
0.9997
0.9997
0.9996
0.9995
0.9995
0.9993
0.9992
0.9991
0.999
0.999
0.9989
0.9989
0.9989
0.9989
0.001736
0.9432
1
1
1
1
1
1
1
1
1
1
1
1
1
1
1
1
1
1
1
0.9986
0.991
0.994
0.9962
0.997
0.9939
0.9929
0.9919
0.9744
0.7744
0.08905
0.006716
0.00083
0.0002759
0.0002039
0.0003121
0.000559
0.0006987
0.000593
0.0004341
0.0004171
0.0006802
0.0009112
0.000548
0.0001259
8.227e-06
5.731e-07
6.311e-08
4.51e-08
1.757e-07
4.429e-06
0.0002591
0.02356
0.9075
0.9997
1
1
1
1
0.9998
0.9997
0.9998
0.9997
0.9997
0.9997
0.9998
0.9999
1
1
1
0.9999
0.9999
0.9999
0.9998
0.9996
0.9995
0.9992
0.9991
0.9993
0.9994
0.9995
0.9993
0.999
0.9988
0.9988
0.9988
0.9989
0.9989
0.999
0.999
0.999
0.9991
0.9991
0.9992
0.9992
0.9991
0.9987
0.9982
0.9976
0.9975
0.9977
0.9978
0.9982
0.9986
0.999
0.9995
0.9998
0.9999
0.9999
0.9999
0.9998
0.9997
0.9995
0.9994
0.9994
0.9995
0.9996
0.9997
0.9997
0.9997
0.9997
0.9997
0.9997
0.9997
0.9998
0.9998
0.9998
0.9998
0.9998
0.9999
0.9999
0.9999
0.9999
0.9999
0.9999
0.9999
0.9999
0.9999
0.9999
0.9999
0.9999
0.9999
0.9999
0.9999
0.9999
0.9998
0.9998
0.9998
0.9998
0.9996
0.9994
0.999
0.9989
0.9988
0.9987
0.9987
0.9987
0.9988
0.9988
0.07053
0.9993
1
1
1
1
1
1
1
1
1
0.9973
0.9995
0.9999
1
1
1
1
1
1
1
1
0.9989
0.997
0.9945
0.9929
0.9888
0.9885
0.9877
0.9454
0.4213
0.03698
0.006315
0.002303
0.002171
0.002276
0.003594
0.005377
0.005059
0.003532
0.002723
0.004123
0.01124
0.02085
0.01163
0.0019
0.0001515
1.322e-05
1.926e-06
1.526e-06
6.49e-06
0.000193
0.01578
0.8738
0.9991
1
1
1
1
1
0.9999
0.9999
1
1
1
0.9999
0.9999
0.9999
0.9999
0.9998
0.9994
0.9977
0.9957
0.9923
0.9861
0.9843
0.9894
0.9933
0.9974
0.999
0.9995
0.9996
0.9996
0.9995
0.9994
0.9994
0.9995
0.9995
0.9996
0.9996
0.9995
0.9995
0.9994
0.9994
0.9994
0.9994
0.9992
0.9987
0.9979
0.9968
0.9968
0.9978
0.9986
0.9993
0.9996
0.9998
0.9999
1
1
1
1
1
1
1
1
1
1
1
1
1
1
1
1
1
1
1
1
1
1
1
1
1
1
1
1
1
1
1
1
1
1
1
1
1
1
0.9999
0.9999
0.9999
0.9999
0.9999
0.9998
0.9994
0.9988
0.9986
0.9985
0.9985
0.9986
0.9986
0.9987
0.9987
0.9011
1
1
1
1
1
1
1
1
0.9996
0.1254
0.001964
0.001999
0.002053
0.055
0.9989
1
1
1
1
1
1
0.9998
0.9985
0.9948
0.9905
0.9811
0.9692
0.9348
0.6142
0.09847
0.01792
0.006735
0.005244
0.00766
0.009096
0.0115
0.01258
0.009307
0.005813
0.004502
0.008344
0.02497
0.05378
0.02976
0.004857
0.0003463
3.341e-05
5.523e-06
6.701e-06
4.827e-05
0.002634
0.2158
0.9945
0.9999
1
1
1
1
1
1
1
1
1
1
1
1
1
0.9997
0.9968
0.9561
0.5096
0.1365
0.05453
0.01941
0.02436
0.08459
0.4717
0.9676
0.997
0.9987
0.9993
0.9994
0.9994
0.9994
0.9995
0.9996
0.9997
0.9997
0.9997
0.9997
0.9997
0.9996
0.9995
0.9995
0.9994
0.9991
0.9986
0.9981
0.998
0.9988
0.9995
0.9998
0.9999
1
1
1
1
1
1
1
1
1
1
1
1
1
1
1
1
1
1
1
1
1
1
1
1
1
1
1
1
1
1
1
1
1
1
1
1
1
1
1
1
1
1
1
1
1
0.9999
0.9998
0.9994
0.9985
0.9982
0.9983
0.9983
0.9985
0.9985
0.9986
0.9984
0.9987
1
1
1
1
1
1
1
1
0.1667
0.0001233
4.824e-07
4.95e-08
1.646e-08
3.064e-07
0.000315
0.9996
1
1
1
1
1
1
0.9998
0.9983
0.9932
0.9799
0.9479
0.7496
0.1824
0.02822
0.007759
0.004957
0.006616
0.01038
0.0131
0.01554
0.01618
0.01218
0.007284
0.005846
0.01225
0.01965
0.02047
0.008063
0.001305
0.0001375
5.421e-05
2.297e-05
5.227e-05
0.0006458
0.06849
0.9582
0.9997
1
1
1
1
1
0.9999
0.9999
0.9999
1
1
1
1
1
0.9999
0.9976
0.8746
0.07439
0.008168
0.00258
0.001082
0.0004248
0.0009072
0.006597
0.1199
0.9456
0.997
0.9981
0.9985
0.9986
0.9987
0.999
0.9993
0.9995
0.9996
0.9996
0.9995
0.9995
0.9996
0.9996
0.9996
0.9996
0.9995
0.9994
0.9995
0.9997
0.9999
1
1
1
1
1
1
1
1
1
1
1
1
1
1
1
1
1
1
1
1
1
1
1
1
1
1
1
1
1
1
1
1
1
1
1
1
1
1
1
1
1
1
1
1
1
1
1
1
1
0.9999
0.9997
0.9991
0.9981
0.9979
0.998
0.9982
0.9983
0.9983
0.9982
0.9981
0.9998
1
1
1
1
1
1
1
0.9995
0.02089
1.664e-05
1.905e-08
1.352e-10
8.998e-12
4.959e-11
3.428e-08
0.005415
1
1
1
1
1
1
1
1
0.9999
0.9995
0.9962
0.9056
0.1768
0.02145
0.005803
0.004176
0.005918
0.008383
0.01124
0.01362
0.01553
0.01213
0.007837
0.007399
0.01812
0.005381
0.002242
0.0007544
0.0001946
5.066e-05
0.0001131
0.0001004
0.0004562
0.01001
0.8563
0.9975
0.9999
1
1
0.9999
0.9999
0.9999
0.9998
0.9998
0.9998
0.9999
1
1
1
1
0.9993
0.9553
0.09347
0.00441
0.0004943
0.0001553
4.884e-05
1.665e-05
4.456e-05
0.0005498
0.02431
0.8006
0.9887
0.9895
0.9885
0.9878
0.9883
0.9924
0.9954
0.9969
0.9978
0.9983
0.9983
0.9985
0.9991
0.9995
0.9998
0.9999
1
1
1
1
1
1
1
1
1
1
1
1
1
1
1
1
1
1
1
1
1
1
0.9999
0.9999
0.9999
0.9999
0.9999
0.9999
0.9999
0.9999
0.9999
0.9999
0.9999
0.9999
0.9999
1
1
1
1
1
1
1
1
1
1
1
1
1
1
1
1
1
1
0.9999
0.9998
0.9994
0.9984
0.9975
0.9975
0.9978
0.9979
0.998
0.9979
0.9978
0.9978
0.9999
1
1
1
1
1
1
1
0.9992
0.1893
0.0002131
4.451e-08
1.667e-11
9.295e-14
7.877e-14
1.631e-11
3.484e-07
0.03628
1
1
1
1
1
1
1
1
1
0.9995
0.9724
0.2316
0.02204
0.003381
0.001502
0.001531
0.002128
0.003778
0.006802
0.01069
0.01117
0.008469
0.008611
0.02037
0.002045
0.0005864
0.0001169
9.095e-05
5.79e-05
0.000431
0.000703
0.006963
0.2303
0.996
0.9999
1
1
1
0.9999
0.9999
0.9997
0.9993
0.9989
0.9993
0.9998
1
1
1
0.9998
0.9938
0.49
0.01496
0.001125
0.0002193
9.321e-05
2.576e-05
9.626e-06
2.431e-05
0.0003538
0.01739
0.7292
0.9745
0.97
0.953
0.9418
0.9325
0.9496
0.9638
0.9718
0.9795
0.9856
0.989
0.9941
0.9984
0.9998
1
1
1
1
1
1
1
1
1
1
1
1
1
1
1
0.9999
0.9996
0.9986
0.9972
0.9958
0.9952
0.9946
0.9941
0.9941
0.9929
0.9913
0.9902
0.9893
0.9896
0.9905
0.9912
0.9911
0.9911
0.9902
0.991
0.9924
0.9948
0.9971
0.9985
0.9992
0.9996
0.9998
0.9999
0.9999
1
1
1
1
0.9999
0.9999
0.9999
0.9999
0.9999
0.9999
0.9998
0.9996
0.9991
0.9983
0.9972
0.9969
0.9972
0.9975
0.9976
0.9975
0.9974
0.9975
0.9978
1
1
1
1
1
1
1
1
0.9999
0.9681
0.005033
7.191e-07
1.086e-10
1.542e-13
1.478e-14
1.422e-13
5.057e-11
2.822e-07
0.02165
1
1
1
1
1
1
1
1
1
0.9981
0.7863
0.07846
0.007276
0.00169
0.0009719
0.0009109
0.0015
0.003281
0.006549
0.009379
0.008844
0.007445
0.01302
0.0008218
0.0002329
6.207e-05
0.000165
0.0001824
0.002876
0.01054
0.1546
0.9853
0.9999
1
1
1
1
0.9999
0.9999
0.9997
0.9993
0.9991
0.9997
0.9999
1
1
0.9999
0.9981
0.9076
0.09706
0.006118
0.000834
0.000314
0.0001068
2.213e-05
1.364e-05
5.382e-05
0.001321
0.06292
0.8975
0.9723
0.9647
0.9516
0.9411
0.9272
0.9393
0.9537
0.9544
0.9478
0.9639
0.9862
0.998
0.9999
1
1
1
1
1
1
1
1
1
1
1
1
0.9999
0.9998
0.9986
0.9951
0.975
0.8674
0.3595
0.1428
0.08225
0.083
0.0997
0.1297
0.1451
0.1468
0.1434
0.1603
0.1795
0.196
0.1769
0.1576
0.1379
0.1287
0.1189
0.124
0.1458
0.2048
0.3932
0.7911
0.9407
0.9852
0.9958
0.9983
0.9991
0.9995
0.9995
0.9995
0.9995
0.9994
0.9994
0.9994
0.9994
0.9994
0.9992
0.9988
0.9981
0.9969
0.9961
0.9958
0.9964
0.9969
0.9971
0.9971
0.997
0.9972
0.9976
0.9981
1
1
1
1
1
1
1
1
1
0.9979
0.03681
7.72e-06
1.413e-09
1.335e-12
3.248e-14
2.241e-14
8.139e-14
7.294e-12
5.897e-08
0.002852
0.9997
1
1
1
1
1
1
1
1
0.9971
0.8901
0.09782
0.01055
0.002187
0.0009673
0.000863
0.001256
0.002126
0.003347
0.003744
0.003507
0.00689
0.0007825
0.0004032
0.0003386
0.0006401
0.0009849
0.01841
0.1661
0.9737
0.9997
1
1
1
1
0.9999
0.9999
0.9998
0.9996
0.9995
0.9998
1
1
1
1
0.9999
0.9868
0.3216
0.02145
0.002433
0.0005242
0.0002347
9.124e-05
3.866e-05
7.881e-05
0.0006686
0.02179
0.6852
0.9862
0.9906
0.989
0.9866
0.9847
0.9805
0.9805
0.9827
0.9932
0.9956
0.999
0.9998
1
1
1
1
1
1
1
1
1
1
0.9999
0.9996
0.9989
0.9968
0.9919
0.97
0.8245
0.3905
0.126
0.04617
0.01714
0.0096
0.007185
0.009516
0.01471
0.025
0.03092
0.03237
0.03093
0.03287
0.03437
0.0332
0.02891
0.02457
0.02028
0.01728
0.01444
0.01185
0.009838
0.007979
0.01161
0.03111
0.1207
0.5762
0.9349
0.9768
0.9878
0.9923
0.9934
0.9936
0.9935
0.9935
0.9938
0.9948
0.9956
0.9958
0.9954
0.9948
0.994
0.9938
0.9946
0.9955
0.9961
0.9965
0.9967
0.9967
0.9969
0.9973
0.9979
0.9985
0.9999
1
1
1
1
1
1
1
1
0.9997
0.1867
7.635e-05
2.711e-08
4.668e-11
5.824e-13
1.002e-13
2.024e-14
3.831e-14
5.897e-12
3.542e-08
0.0009848
0.9899
1
1
1
1
1
1
1
1
0.9993
0.9496
0.1492
0.01741
0.003919
0.001855
0.001362
0.001585
0.002226
0.002664
0.00255
0.00495
0.002332
0.003131
0.004591
0.006835
0.01133
0.163
0.9531
0.9997
1
1
1
1
0.9999
0.9999
0.9998
0.9997
0.9994
0.9997
1
1
1
1
1
0.9997
0.9442
0.1437
0.01456
0.002128
0.0004089
0.0001255
4.758e-05
4.058e-05
0.0002403
0.004246
0.1388
0.9446
0.9938
0.9942
0.9943
0.9944
0.9949
0.9947
0.9976
0.9994
0.9999
1
1
1
1
1
1
1
1
1
1
0.9997
0.9982
0.9941
0.98
0.9226
0.8126
0.6413
0.542
0.4026
0.2399
0.1157
0.04547
0.01853
0.007707
0.004549
0.003608
0.004537
0.006356
0.01033
0.013
0.01443
0.01506
0.01775
0.02083
0.02128
0.01817
0.01368
0.01005
0.007193
0.004865
0.002926
0.001576
0.0008551
0.001207
0.00412
0.0287
0.2093
0.7869
0.8931
0.9201
0.9356
0.9459
0.9537
0.9601
0.9659
0.9711
0.9757
0.9796
0.983
0.9861
0.9889
0.9912
0.9931
0.9945
0.9953
0.9959
0.9961
0.9961
0.9963
0.9967
0.9974
0.9984
0.9989
0.9997
0.9999
1
1
1
1
1
1
1
0.9999
0.7524
0.000464
2.802e-07
1.842e-09
4.8e-11
8.225e-12
5.957e-13
1.029e-13
3.937e-13
7.346e-11
1.29e-07
0.0005259
0.4266
0.998
0.9999
1
1
1
1
1
1
0.9999
0.9865
0.4285
0.05126
0.01145
0.004671
0.003234
0.003198
0.00373
0.003712
0.005608
0.006503
0.008393
0.01332
0.05401
0.1876
0.9802
0.9999
1
1
1
1
1
0.9999
0.9999
0.9998
0.9995
0.9993
0.9999
1
1
1
1
1
0.9993
0.9011
0.1112
0.01893
0.002167
0.0003048
9.083e-05
7.065e-05
0.0002503
0.004841
0.1048
0.9118
0.9945
0.9988
0.9989
0.9989
0.9993
0.9997
0.9998
0.9999
1
1
1
1
1
1
1
1
1
0.9997
0.9966
0.9745
0.8831
0.694
0.6565
0.6117
0.534
0.454
0.382
0.3214
0.2494
0.162
0.09068
0.04157
0.01891
0.009935
0.006438
0.00458
0.004813
0.005539
0.007365
0.009527
0.01251
0.01474
0.01941
0.0227
0.02248
0.01582
0.009081
0.004707
0.002411
0.001281
0.0007609
0.0004469
0.0003005
0.0005711
0.002577
0.02385
0.1934
0.7692
0.8762
0.9048
0.9208
0.9313
0.9395
0.9471
0.9548
0.962
0.969
0.975
0.9803
0.9849
0.9886
0.9914
0.9934
0.9947
0.9953
0.9956
0.9956
0.9954
0.9965
0.9978
0.9988
0.9994
0.9995
0.999
0.9998
1
1
1
1
1
1
1
1
0.9641
0.002324
5.262e-06
8.186e-08
1.143e-08
5.621e-09
6.621e-10
3.43e-11
8.401e-12
5.179e-11
3.97e-09
2.151e-06
0.0009982
0.2389
0.9876
0.9995
1
1
1
1
1
1
1
0.9987
0.9234
0.1546
0.04233
0.01888
0.01476
0.01509
0.01547
0.01928
0.01716
0.01847
0.04221
0.4182
0.958
0.9998
1
1
1
1
1
1
1
0.9999
0.9998
0.9995
0.9996
1
1
1
1
1
1
0.9939
0.7093
0.07304
0.02407
0.004168
0.0007314
0.0002806
0.0004108
0.003861
0.1329
0.9409
0.997
0.9994
0.9997
0.9996
0.9996
0.9998
0.9999
1
1
1
1
1
1
1
1
0.9999
0.9998
0.9955
0.9538
0.8064
0.6078
0.5346
0.4881
0.4428
0.3936
0.3393
0.294
0.2629
0.2351
0.2008
0.1408
0.08645
0.04514
0.02484
0.01767
0.01538
0.01179
0.01138
0.01111
0.01221
0.01308
0.01677
0.01842
0.02429
0.02898
0.02674
0.01485
0.007122
0.003516
0.002069
0.001452
0.001197
0.0009048
0.0008174
0.00182
0.008996
0.06059
0.3482
0.8356
0.8942
0.9135
0.9248
0.9323
0.9383
0.9453
0.9533
0.961
0.9688
0.9755
0.9813
0.986
0.9898
0.9923
0.994
0.9948
0.9951
0.995
0.9953
0.9961
0.998
0.9991
0.9996
0.9997
0.9997
0.9906
0.9992
0.9999
1
1
1
1
1
1
1
0.9938
0.01159
5.525e-05
1.914e-06
8.731e-07
1.309e-06
7.676e-07
6.197e-08
6.083e-09
3.127e-09
1.281e-08
3.157e-07
2.701e-05
0.003451
0.1359
0.9219
0.9954
0.9999
1
1
1
1
1
1
0.9999
0.9875
0.8155
0.1785
0.09444
0.08851
0.09715
0.1077
0.09879
0.1938
0.786
0.9952
0.9998
1
1
1
1
1
1
0.9999
0.9999
0.9998
0.9997
0.9995
0.9998
1
1
1
1
1
0.9992
0.9392
0.3963
0.05181
0.03916
0.0176
0.006742
0.005248
0.0152
0.1831
0.9531
0.9965
0.9992
0.9995
0.9996
0.9996
0.9997
0.9998
0.9999
1
1
1
1
1
0.9999
0.9991
0.9929
0.9536
0.869
0.5032
0.3784
0.3632
0.3414
0.3322
0.3174
0.2956
0.289
0.3024
0.3417
0.371
0.3558
0.2733
0.1554
0.08743
0.05025
0.03406
0.03377
0.04167
0.03888
0.04111
0.04225
0.05341
0.05989
0.07031
0.06335
0.05979
0.05868
0.04654
0.02137
0.009647
0.004819
0.003422
0.003346
0.003894
0.004358
0.006813
0.01881
0.07082
0.2679
0.7461
0.9005
0.925
0.9374
0.9448
0.9494
0.9527
0.9574
0.9635
0.9697
0.9756
0.9807
0.985
0.9885
0.9913
0.9931
0.9942
0.9946
0.9945
0.9951
0.9965
0.9985
0.9996
0.9999
0.9999
0.9999
0.9999
0.9097
0.9952
0.9998
1
1
1
1
1
1
1
0.9986
0.07614
0.0006326
2.385e-05
1.953e-05
5.516e-05
0.0001364
2.627e-05
2.006e-06
1.823e-07
7.172e-08
1.748e-07
2.574e-06
0.0001128
0.004389
0.06311
0.4272
0.9779
0.9996
1
1
1
1
1
1
1
0.9998
0.997
0.9933
0.9906
0.992
0.9905
0.9873
0.9959
0.9994
1
1
1
1
1
1
1
0.9998
0.9997
0.9996
0.9995
0.9996
0.9997
0.9999
1
1
1
1
0.9997
0.9827
0.5416
0.287
0.07398
0.1217
0.1302
0.1127
0.1666
0.4067
0.9324
0.994
0.9988
0.9995
0.9995
0.9996
0.9997
0.9998
0.9999
1
0.9999
0.9999
0.9999
0.9992
0.9895
0.887
0.2393
0.0759
0.06261
0.08182
0.112
0.1621
0.2094
0.2295
0.2698
0.2998
0.313
0.3349
0.3774
0.4207
0.4261
0.3912
0.2892
0.1936
0.1443
0.08702
0.05657
0.05947
0.07597
0.09591
0.1578
0.2501
0.3345
0.353
0.316
0.2209
0.1608
0.1396
0.1056
0.04781
0.0205
0.01196
0.01042
0.0133
0.02076
0.03151
0.06435
0.1702
0.4707
0.8142
0.9147
0.9427
0.953
0.9592
0.9629
0.9654
0.9674
0.9706
0.9746
0.9787
0.9823
0.9853
0.988
0.9904
0.9924
0.9938
0.9946
0.995
0.9957
0.9972
0.9989
0.9997
1
1
1
1
1
0.3468
0.9775
0.9995
1
1
1
1
1
1
1
0.9993
0.2237
0.002054
7.813e-05
5.973e-05
0.0003252
0.001811
0.0008086
5.678e-05
1.676e-06
1.065e-07
6.366e-08
3.036e-07
9.477e-06
0.0004101
0.009174
0.05513
0.3128
0.945
0.9991
1
1
1
1
1
1
1
1
1
0.9999
0.9999
0.9999
0.9999
1
1
1
1
1
0.9999
0.9996
0.999
0.999
0.9987
0.9983
0.9982
0.9987
0.9995
0.9999
1
1
1
1
0.9996
0.9776
0.766
0.2092
0.3106
0.1427
0.3206
0.7113
0.8544
0.9276
0.963
0.9884
0.9962
0.9981
0.9987
0.9989
0.9993
0.9996
0.9998
0.9999
0.9999
0.9998
0.9988
0.9896
0.8495
0.1588
0.03364
0.01316
0.009939
0.01325
0.02676
0.05783
0.1013
0.1566
0.2046
0.2447
0.2566
0.2571
0.2836
0.3939
0.609
0.682
0.6596
0.5498
0.6921
0.8793
0.9579
0.9703
0.9811
0.9778
0.9781
0.9809
0.9905
0.9922
0.9944
0.9928
0.9865
0.9706
0.9574
0.9329
0.7757
0.3167
0.1432
0.09442
0.1073
0.1836
0.3337
0.634
0.8375
0.9134
0.9406
0.9522
0.9599
0.9654
0.9691
0.9717
0.9736
0.9756
0.9783
0.9816
0.9848
0.9874
0.9895
0.991
0.9922
0.9935
0.9945
0.9952
0.9965
0.9978
0.9992
0.9998
1
1
1
1
1
1
0.1295
0.9014
0.998
1
1
1
1
1
1
1
0.9997
0.6626
0.004706
0.0001131
4.922e-05
0.0002642
0.001683
0.001225
6.289e-05
1.004e-06
2.258e-08
6.644e-09
2.719e-08
1.191e-06
9.096e-05
0.003935
0.0276
0.08832
0.1862
0.6663
0.9877
0.9999
1
1
1
1
1
1
1
1
1
1
1
1
1
1
1
0.9998
0.997
0.9921
0.9915
0.9922
0.9934
0.9933
0.9949
0.9982
0.9997
1
1
1
1
0.9986
0.9783
0.7447
0.2643
0.1684
0.4248
0.3165
0.6611
0.9076
0.9653
0.983
0.9881
0.9904
0.9917
0.9932
0.9944
0.9957
0.9974
0.9988
0.9993
0.9994